<?xml version="1.0" encoding="UTF-8"?>

<!-- generated on 2026-03-15T16:30:08.684953+05:30 by Eclipse SUMO GUI 1.26.0
<sumoConfiguration xmlns:xsi="http://www.w3.org/2001/XMLSchema-instance" xsi:noNamespaceSchemaLocation="http://sumo.dlr.de/xsd/sumoConfiguration.xsd">

    <input>
        <net-file value="config\../data/network/chennai.net.xml"/>
        <route-files value="config\../routes/vehicle_types.xml,config\../routes/routes.rou.xml"/>
        <additional-files value="config\../data/buildings/buildings.poly.xml,config\../traffic_lights/tls.add.xml,config\../detectors/detectors.add.xml"/>
    </input>

    <output>
        <summary-output value="config\../metrics_output/summary.xml"/>
        <tripinfo-output value="config\../metrics_output/tripinfo.xml"/>
    </output>

    <time>
        <begin value="0"/>
        <end value="3600"/>
        <step-length value="1"/>
    </time>

    <processing>
        <ignore-route-errors value="true"/>
        <collision.check-junctions value="true"/>
        <time-to-teleport value="-1"/>
    </processing>

    <report>
        <verbose value="true"/>
        <no-step-log value="true"/>
    </report>

    <gui_only>
        <gui-settings-file value="config\gui_settings.xml"/>
    </gui_only>

</sumoConfiguration>
-->

<tripinfos xmlns:xsi="http://www.w3.org/2001/XMLSchema-instance" xsi:noNamespaceSchemaLocation="http://sumo.dlr.de/xsd/tripinfo_file.xsd">
    <tripinfo id="20" depart="30.00" departLane="-1269354622#0_0" departPos="2.10" departSpeed="0.00" departDelay="0.00" arrival="122.00" arrivalLane="-27189818#1_0" arrivalPos="137.07" arrivalSpeed="13.68" duration="92.00" routeLength="1162.08" waitingTime="0.00" waitingCount="0" stopTime="0.00" timeLoss="21.11" rerouteNo="0" devices="tripinfo_20" vType="bike" speedFactor="1.02" vaporized=""/>
    <tripinfo id="0" depart="0.00" departLane="206654153_0" departPos="2.10" departSpeed="0.00" departDelay="0.00" arrival="128.00" arrivalLane="-1249393975#0_0" arrivalPos="38.73" arrivalSpeed="14.65" duration="128.00" routeLength="1669.56" waitingTime="3.00" waitingCount="1" stopTime="0.00" timeLoss="29.79" rerouteNo="0" devices="tripinfo_0" vType="bike" speedFactor="1.06" vaporized=""/>
    <tripinfo id="4" depart="6.00" departLane="-217753823_0" departPos="2.10" departSpeed="0.00" departDelay="0.00" arrival="135.00" arrivalLane="1269285831_0" arrivalPos="16.10" arrivalSpeed="14.03" duration="129.00" routeLength="1452.20" waitingTime="0.00" waitingCount="0" stopTime="0.00" timeLoss="26.14" rerouteNo="0" devices="tripinfo_4" vType="bike" speedFactor="1.03" vaporized=""/>
    <tripinfo id="10" depart="15.00" departLane="-27189898#3_0" departPos="5.10" departSpeed="0.00" departDelay="0.00" arrival="143.00" arrivalLane="-218226965_0" arrivalPos="121.83" arrivalSpeed="13.89" duration="128.00" routeLength="1643.18" waitingTime="0.00" waitingCount="0" stopTime="0.00" timeLoss="18.85" rerouteNo="0" devices="tripinfo_10" vType="car" speedFactor="1.09" vaporized=""/>
    <tripinfo id="68" depart="102.00" departLane="-27433080#0_0" departPos="5.10" departSpeed="0.00" departDelay="0.00" arrival="149.00" arrivalLane="-26525083#1_0" arrivalPos="54.12" arrivalSpeed="14.42" duration="47.00" routeLength="427.77" waitingTime="0.00" waitingCount="0" stopTime="0.00" timeLoss="15.07" rerouteNo="0" devices="tripinfo_68" vType="car" speedFactor="1.04" vaporized=""/>
    <tripinfo id="54" depart="81.00" departLane="-26619453#5_0" departPos="2.10" departSpeed="0.00" departDelay="0.00" arrival="151.00" arrivalLane="217745279_0" arrivalPos="39.39" arrivalSpeed="13.27" duration="70.00" routeLength="767.66" waitingTime="0.00" waitingCount="0" stopTime="0.00" timeLoss="14.37" rerouteNo="0" devices="tripinfo_54" vType="bike" speedFactor="1.00" vaporized=""/>
    <tripinfo id="42" depart="63.00" departLane="27189806#1_0" departPos="5.10" departSpeed="0.00" departDelay="0.00" arrival="172.00" arrivalLane="1055338019#3_0" arrivalPos="64.93" arrivalSpeed="15.62" duration="109.00" routeLength="1291.47" waitingTime="0.00" waitingCount="0" stopTime="0.00" timeLoss="22.53" rerouteNo="0" devices="tripinfo_42" vType="car" speedFactor="1.09" vaporized=""/>
    <tripinfo id="58" depart="87.00" departLane="-101176398#4_0" departPos="5.10" departSpeed="0.00" departDelay="0.00" arrival="177.00" arrivalLane="-27432453#1_0" arrivalPos="89.00" arrivalSpeed="15.42" duration="90.00" routeLength="1151.52" waitingTime="0.00" waitingCount="0" stopTime="0.00" timeLoss="14.81" rerouteNo="0" devices="tripinfo_58" vType="car" speedFactor="1.02" vaporized=""/>
    <tripinfo id="14" depart="21.00" departLane="27189863_0" departPos="2.10" departSpeed="0.00" departDelay="0.00" arrival="185.00" arrivalLane="25459233#3_0" arrivalPos="49.88" arrivalSpeed="16.52" duration="164.00" routeLength="1632.30" waitingTime="39.00" waitingCount="2" stopTime="0.00" timeLoss="65.83" rerouteNo="0" devices="tripinfo_14" vType="bike" speedFactor="0.99" vaporized=""/>
    <tripinfo id="1" depart="2.00" departLane="-25459372#0_0" departPos="5.10" departSpeed="0.00" departDelay="0.50" arrival="186.00" arrivalLane="-26748567#5_0" arrivalPos="12.28" arrivalSpeed="12.80" duration="184.00" routeLength="2346.26" waitingTime="0.00" waitingCount="0" stopTime="0.00" timeLoss="23.02" rerouteNo="0" devices="tripinfo_1" vType="car" speedFactor="0.94" vaporized=""/>
    <tripinfo id="52" depart="78.00" departLane="-995106086#2_0" departPos="0.20" departSpeed="0.00" departDelay="0.00" arrival="192.00" arrivalLane="-23164095_0" arrivalPos="198.62" arrivalSpeed="12.90" duration="114.00" routeLength="1247.64" waitingTime="0.00" waitingCount="0" stopTime="0.00" timeLoss="19.33" rerouteNo="0" devices="tripinfo_52" vType="car" speedFactor="1.02" vaporized=""/>
    <tripinfo id="34" depart="51.00" departLane="209535251#2-AddedOffRampEdge_0" departPos="5.10" departSpeed="0.00" departDelay="0.00" arrival="195.00" arrivalLane="-995106086#2_0" arrivalPos="0.20" arrivalSpeed="5.09" duration="144.00" routeLength="1693.11" waitingTime="0.00" waitingCount="0" stopTime="0.00" timeLoss="19.90" rerouteNo="0" devices="tripinfo_34" vType="car" speedFactor="0.99" vaporized=""/>
    <tripinfo id="22" depart="33.00" departLane="-27200531_0" departPos="5.10" departSpeed="0.00" departDelay="0.00" arrival="200.00" arrivalLane="-26524548#2_0" arrivalPos="19.05" arrivalSpeed="9.72" duration="167.00" routeLength="1442.89" waitingTime="0.00" waitingCount="0" stopTime="0.00" timeLoss="35.58" rerouteNo="0" devices="tripinfo_22" vType="car" speedFactor="0.97" vaporized=""/>
    <tripinfo id="30" depart="45.00" departLane="-218221699_0" departPos="2.10" departSpeed="0.00" departDelay="0.00" arrival="218.00" arrivalLane="-1268550751_0" arrivalPos="27.07" arrivalSpeed="16.35" duration="173.00" routeLength="1767.60" waitingTime="26.00" waitingCount="1" stopTime="0.00" timeLoss="56.80" rerouteNo="0" devices="tripinfo_30" vType="bike" speedFactor="1.18" vaporized=""/>
    <tripinfo id="24" depart="36.00" departLane="206819375#1_0" departPos="3.10" departSpeed="0.00" departDelay="0.00" arrival="220.00" arrivalLane="206812369#1_0" arrivalPos="151.39" arrivalSpeed="10.98" duration="184.00" routeLength="1912.93" waitingTime="0.00" waitingCount="0" stopTime="0.00" timeLoss="29.80" rerouteNo="0" devices="tripinfo_24" vType="auto" speedFactor="0.83" vaporized=""/>
    <tripinfo id="32" depart="48.00" departLane="-217750134#1_0" departPos="5.10" departSpeed="0.00" departDelay="0.00" arrival="221.00" arrivalLane="33876130_0" arrivalPos="90.37" arrivalSpeed="2.14" duration="173.00" routeLength="1603.72" waitingTime="10.00" waitingCount="1" stopTime="0.00" timeLoss="41.75" rerouteNo="0" devices="tripinfo_32" vType="car" speedFactor="1.01" vaporized=""/>
    <tripinfo id="16" depart="24.00" departLane="27189973#0_0" departPos="5.10" departSpeed="0.00" departDelay="0.00" arrival="227.00" arrivalLane="209513216#0_0" arrivalPos="84.52" arrivalSpeed="11.24" duration="203.00" routeLength="2276.56" waitingTime="0.00" waitingCount="0" stopTime="0.00" timeLoss="31.06" rerouteNo="0" devices="tripinfo_16" vType="car" speedFactor="0.88" vaporized=""/>
    <tripinfo id="26" depart="39.00" departLane="-206812369#3_0" departPos="5.10" departSpeed="0.00" departDelay="0.00" arrival="228.00" arrivalLane="-383931208#3_0" arrivalPos="14.37" arrivalSpeed="14.95" duration="189.00" routeLength="2191.33" waitingTime="21.00" waitingCount="1" stopTime="0.00" timeLoss="45.44" rerouteNo="0" devices="tripinfo_26" vType="car" speedFactor="0.92" vaporized=""/>
    <tripinfo id="60" depart="90.00" departLane="27346939#0_0" departPos="3.10" departSpeed="0.00" departDelay="0.00" arrival="236.00" arrivalLane="27192384_0" arrivalPos="161.55" arrivalSpeed="13.79" duration="146.00" routeLength="1334.76" waitingTime="10.00" waitingCount="1" stopTime="0.00" timeLoss="38.35" rerouteNo="0" devices="tripinfo_60" vType="auto" speedFactor="1.08" vaporized=""/>
    <tripinfo id="12" depart="18.00" departLane="-1280153710#0_0" departPos="5.10" departSpeed="0.00" departDelay="0.00" arrival="238.00" arrivalLane="-206819363_0" arrivalPos="86.00" arrivalSpeed="14.42" duration="220.00" routeLength="1679.91" waitingTime="76.00" waitingCount="2" stopTime="0.00" timeLoss="104.06" rerouteNo="0" devices="tripinfo_12" vType="car" speedFactor="1.05" vaporized=""/>
    <tripinfo id="8" depart="12.00" departLane="27189870#0_0" departPos="5.10" departSpeed="0.00" departDelay="0.00" arrival="239.00" arrivalLane="-1131526942#12_0" arrivalPos="62.66" arrivalSpeed="6.92" duration="227.00" routeLength="2484.07" waitingTime="0.00" waitingCount="0" stopTime="0.00" timeLoss="33.45" rerouteNo="0" devices="tripinfo_8" vType="car" speedFactor="0.94" vaporized=""/>
    <tripinfo id="70" depart="105.00" departLane="-217747538#2_0" departPos="5.10" departSpeed="0.00" departDelay="0.00" arrival="248.00" arrivalLane="-27346939#1_0" arrivalPos="87.93" arrivalSpeed="2.76" duration="143.00" routeLength="1161.09" waitingTime="0.00" waitingCount="0" stopTime="0.00" timeLoss="32.22" rerouteNo="0" devices="tripinfo_70" vType="car" speedFactor="1.02" vaporized=""/>
    <tripinfo id="66" depart="99.00" departLane="-33876667#1_0" departPos="5.10" departSpeed="0.00" departDelay="0.00" arrival="253.00" arrivalLane="1354821618_0" arrivalPos="29.78" arrivalSpeed="11.88" duration="154.00" routeLength="1435.67" waitingTime="0.00" waitingCount="0" stopTime="0.00" timeLoss="26.50" rerouteNo="0" devices="tripinfo_66" vType="car" speedFactor="0.91" vaporized=""/>
    <tripinfo id="40" depart="60.00" departLane="-1275903512#1_0" departPos="2.10" departSpeed="0.00" departDelay="0.00" arrival="254.00" arrivalLane="-1281940343#0_0" arrivalPos="22.16" arrivalSpeed="13.22" duration="194.00" routeLength="2354.60" waitingTime="0.00" waitingCount="0" stopTime="0.00" timeLoss="49.44" rerouteNo="0" devices="tripinfo_40" vType="bike" speedFactor="1.03" vaporized=""/>
    <tripinfo id="92" depart="138.00" departLane="1210961436#1_0" departPos="2.10" departSpeed="0.00" departDelay="0.00" arrival="260.00" arrivalLane="-1296568209_0" arrivalPos="24.17" arrivalSpeed="11.53" duration="122.00" routeLength="1093.87" waitingTime="27.00" waitingCount="2" stopTime="0.00" timeLoss="52.29" rerouteNo="0" devices="tripinfo_92" vType="bike" speedFactor="0.83" vaporized=""/>
    <tripinfo id="124" depart="186.00" departLane="27189903#0_0" departPos="5.10" departSpeed="0.00" departDelay="0.00" arrival="263.00" arrivalLane="-27346882#3_0" arrivalPos="28.57" arrivalSpeed="11.75" duration="77.00" routeLength="400.13" waitingTime="27.00" waitingCount="1" stopTime="0.00" timeLoss="47.16" rerouteNo="0" devices="tripinfo_124" vType="car" speedFactor="1.06" vaporized=""/>
    <tripinfo id="46" depart="69.00" departLane="-1131526947_0" departPos="5.10" departSpeed="0.00" departDelay="0.00" arrival="264.00" arrivalLane="23698633#9_0" arrivalPos="94.83" arrivalSpeed="15.83" duration="195.00" routeLength="1676.41" waitingTime="56.00" waitingCount="1" stopTime="0.00" timeLoss="84.16" rerouteNo="0" devices="tripinfo_46" vType="car" speedFactor="1.00" vaporized=""/>
    <tripinfo id="118" depart="177.00" departLane="-1268600899_0" departPos="2.10" departSpeed="0.00" departDelay="0.00" arrival="264.00" arrivalLane="-26525083#7_0" arrivalPos="4.33" arrivalSpeed="5.21" duration="87.00" routeLength="835.65" waitingTime="0.00" waitingCount="0" stopTime="0.00" timeLoss="20.30" rerouteNo="0" devices="tripinfo_118" vType="bike" speedFactor="0.99" vaporized=""/>
    <tripinfo id="126" depart="189.00" departLane="-184913336#0_0" departPos="5.10" departSpeed="0.00" departDelay="0.00" arrival="264.00" arrivalLane="-217745280_0" arrivalPos="88.83" arrivalSpeed="14.20" duration="75.00" routeLength="837.70" waitingTime="0.00" waitingCount="0" stopTime="0.00" timeLoss="12.94" rerouteNo="0" devices="tripinfo_126" vType="car" speedFactor="1.03" vaporized=""/>
    <tripinfo id="108" depart="162.00" departLane="1304764386#1_0" departPos="5.10" departSpeed="0.00" departDelay="0.00" arrival="266.00" arrivalLane="217798330#0_0" arrivalPos="46.39" arrivalSpeed="14.13" duration="104.00" routeLength="1452.46" waitingTime="0.00" waitingCount="0" stopTime="0.00" timeLoss="11.44" rerouteNo="0" devices="tripinfo_108" vType="car" speedFactor="1.06" vaporized=""/>
    <tripinfo id="86" depart="129.00" departLane="-27346939#2_0" departPos="6.10" departSpeed="0.00" departDelay="0.00" arrival="271.00" arrivalLane="-27470628_0" arrivalPos="325.80" arrivalSpeed="13.49" duration="142.00" routeLength="1831.93" waitingTime="0.00" waitingCount="0" stopTime="0.00" timeLoss="18.46" rerouteNo="0" devices="tripinfo_86" vType="ambulance" speedFactor="1.00" vaporized=""/>
    <tripinfo id="18" depart="27.00" departLane="217754782_0" departPos="2.10" departSpeed="0.00" departDelay="0.00" arrival="272.00" arrivalLane="-1280153711_0" arrivalPos="203.81" arrivalSpeed="11.94" duration="245.00" routeLength="2564.33" waitingTime="34.00" waitingCount="2" stopTime="0.00" timeLoss="74.80" rerouteNo="0" devices="tripinfo_18" vType="bike" speedFactor="0.94" vaporized=""/>
    <tripinfo id="28" depart="42.00" departLane="1247149793_0" departPos="2.10" departSpeed="0.00" departDelay="0.00" arrival="277.00" arrivalLane="218221705_0" arrivalPos="35.36" arrivalSpeed="2.70" duration="235.00" routeLength="2632.97" waitingTime="20.00" waitingCount="2" stopTime="0.00" timeLoss="71.23" rerouteNo="0" devices="tripinfo_28" vType="bike" speedFactor="1.13" vaporized=""/>
    <tripinfo id="76" depart="114.00" departLane="-218221699_0" departPos="10.10" departSpeed="0.00" departDelay="0.00" arrival="279.00" arrivalLane="27771480_0" arrivalPos="152.07" arrivalSpeed="9.81" duration="165.00" routeLength="1182.78" waitingTime="10.00" waitingCount="2" stopTime="0.00" timeLoss="38.34" rerouteNo="0" devices="tripinfo_76" vType="truck" speedFactor="1.03" vaporized=""/>
    <tripinfo id="36" depart="54.00" departLane="-23698633#11_0" departPos="2.10" departSpeed="0.00" departDelay="0.00" arrival="288.00" arrivalLane="-27189870#3_0" arrivalPos="15.36" arrivalSpeed="10.18" duration="234.00" routeLength="2398.52" waitingTime="43.00" waitingCount="3" stopTime="0.00" timeLoss="88.93" rerouteNo="0" devices="tripinfo_36" vType="bike" speedFactor="0.97" vaporized=""/>
    <tripinfo id="80" depart="120.00" departLane="-33876659#0_0" departPos="5.10" departSpeed="0.00" departDelay="0.00" arrival="293.00" arrivalLane="27189842#0_0" arrivalPos="307.50" arrivalSpeed="13.39" duration="173.00" routeLength="2102.44" waitingTime="6.00" waitingCount="1" stopTime="0.00" timeLoss="33.65" rerouteNo="0" devices="tripinfo_80" vType="car" speedFactor="1.03" vaporized=""/>
    <tripinfo id="116" depart="174.00" departLane="-1268600898_0" departPos="5.10" departSpeed="0.00" departDelay="0.00" arrival="304.00" arrivalLane="1229033616_0" arrivalPos="318.67" arrivalSpeed="15.98" duration="130.00" routeLength="1379.43" waitingTime="18.00" waitingCount="2" stopTime="0.00" timeLoss="40.63" rerouteNo="0" devices="tripinfo_116" vType="car" speedFactor="1.18" vaporized=""/>
    <tripinfo id="6" depart="9.00" departLane="206828306#0_0" departPos="12.10" departSpeed="0.00" departDelay="0.00" arrival="305.00" arrivalLane="1324641901_0" arrivalPos="28.82" arrivalSpeed="10.18" duration="296.00" routeLength="3223.26" waitingTime="0.00" waitingCount="0" stopTime="0.00" timeLoss="24.18" rerouteNo="0" devices="tripinfo_6" vType="bus" speedFactor="1.05" vaporized=""/>
    <tripinfo id="64" depart="96.00" departLane="-1268591617_0" departPos="2.10" departSpeed="0.00" departDelay="0.00" arrival="305.00" arrivalLane="26621177#4_0" arrivalPos="41.44" arrivalSpeed="15.52" duration="209.00" routeLength="2033.15" waitingTime="27.00" waitingCount="1" stopTime="0.00" timeLoss="67.47" rerouteNo="0" devices="tripinfo_64" vType="bike" speedFactor="0.94" vaporized=""/>
    <tripinfo id="2" depart="3.00" departLane="23164094#2_0" departPos="5.10" departSpeed="0.00" departDelay="0.00" arrival="307.00" arrivalLane="217798333_0" arrivalPos="79.25" arrivalSpeed="13.89" duration="304.00" routeLength="3459.62" waitingTime="12.00" waitingCount="1" stopTime="0.00" timeLoss="54.56" rerouteNo="0" devices="tripinfo_2" vType="car" speedFactor="1.01" vaporized=""/>
    <tripinfo id="56" depart="85.00" departLane="25466396#5_0" departPos="5.10" departSpeed="0.00" departDelay="1.00" arrival="313.00" arrivalLane="1311148808_0" arrivalPos="23.97" arrivalSpeed="10.94" duration="228.00" routeLength="2492.65" waitingTime="25.00" waitingCount="1" stopTime="0.00" timeLoss="62.56" rerouteNo="0" devices="tripinfo_56" vType="car" speedFactor="0.90" vaporized=""/>
    <tripinfo id="94" depart="141.00" departLane="27201759#0_0" departPos="5.10" departSpeed="0.00" departDelay="0.00" arrival="316.00" arrivalLane="-23163955#2_0" arrivalPos="63.07" arrivalSpeed="15.03" duration="175.00" routeLength="2222.90" waitingTime="0.00" waitingCount="0" stopTime="0.00" timeLoss="30.43" rerouteNo="0" devices="tripinfo_94" vType="car" speedFactor="1.09" vaporized=""/>
    <tripinfo id="156" depart="234.00" departLane="27346909#1_0" departPos="5.10" departSpeed="0.00" departDelay="0.00" arrival="321.00" arrivalLane="27346895#2_0" arrivalPos="58.56" arrivalSpeed="15.40" duration="87.00" routeLength="1037.48" waitingTime="0.00" waitingCount="0" stopTime="0.00" timeLoss="18.89" rerouteNo="0" devices="tripinfo_156" vType="car" speedFactor="1.18" vaporized=""/>
    <tripinfo id="102" depart="153.00" departLane="68536153#5_0" departPos="2.10" departSpeed="0.00" departDelay="0.00" arrival="327.00" arrivalLane="184913338#1_0" arrivalPos="70.81" arrivalSpeed="13.12" duration="174.00" routeLength="2039.42" waitingTime="0.00" waitingCount="0" stopTime="0.00" timeLoss="39.79" rerouteNo="0" devices="tripinfo_102" vType="bike" speedFactor="0.97" vaporized=""/>
    <tripinfo id="82" depart="123.00" departLane="-1297967423#1_0" departPos="5.10" departSpeed="0.00" departDelay="0.00" arrival="328.00" arrivalLane="1131526942#16_0" arrivalPos="3.31" arrivalSpeed="7.55" duration="205.00" routeLength="2134.85" waitingTime="0.00" waitingCount="0" stopTime="0.00" timeLoss="21.96" rerouteNo="0" devices="tripinfo_82" vType="car" speedFactor="1.02" vaporized=""/>
    <tripinfo id="132" depart="198.00" departLane="27200533_0" departPos="12.10" departSpeed="0.00" departDelay="0.00" arrival="335.00" arrivalLane="-206812356#2_0" arrivalPos="24.50" arrivalSpeed="11.03" duration="137.00" routeLength="1184.81" waitingTime="0.00" waitingCount="0" stopTime="0.00" timeLoss="21.99" rerouteNo="0" devices="tripinfo_132" vType="bus" speedFactor="0.96" vaporized=""/>
    <tripinfo id="140" depart="210.00" departLane="27190013#0_0" departPos="5.10" departSpeed="0.00" departDelay="0.00" arrival="338.00" arrivalLane="184913354#1_0" arrivalPos="40.97" arrivalSpeed="14.58" duration="128.00" routeLength="1473.98" waitingTime="0.00" waitingCount="0" stopTime="0.00" timeLoss="24.08" rerouteNo="0" devices="tripinfo_140" vType="car" speedFactor="1.11" vaporized=""/>
    <tripinfo id="164" depart="246.00" departLane="995106086#0_0" departPos="0.20" departSpeed="0.00" departDelay="0.00" arrival="338.00" arrivalLane="1311148804_0" arrivalPos="21.15" arrivalSpeed="11.78" duration="92.00" routeLength="766.11" waitingTime="0.00" waitingCount="0" stopTime="0.00" timeLoss="11.90" rerouteNo="0" devices="tripinfo_164" vType="bus" speedFactor="1.05" vaporized=""/>
    <tripinfo id="100" depart="150.00" departLane="1230508744_0" departPos="5.10" departSpeed="0.00" departDelay="0.00" arrival="341.00" arrivalLane="23698632#3_0" arrivalPos="385.90" arrivalSpeed="14.61" duration="191.00" routeLength="2552.58" waitingTime="0.00" waitingCount="0" stopTime="0.00" timeLoss="23.51" rerouteNo="0" devices="tripinfo_100" vType="car" speedFactor="1.06" vaporized=""/>
    <tripinfo id="154" depart="233.00" departLane="27189873#0_0" departPos="5.10" departSpeed="0.00" departDelay="2.00" arrival="349.00" arrivalLane="-27189978#0_0" arrivalPos="16.64" arrivalSpeed="9.33" duration="116.00" routeLength="1081.99" waitingTime="16.00" waitingCount="1" stopTime="0.00" timeLoss="42.82" rerouteNo="0" devices="tripinfo_154" vType="car" speedFactor="1.06" vaporized=""/>
    <tripinfo id="134" depart="201.00" departLane="-1040454951_0" departPos="1.77" departSpeed="0.00" departDelay="0.00" arrival="351.00" arrivalLane="26886244#1_0" arrivalPos="318.23" arrivalSpeed="15.40" duration="150.00" routeLength="1963.62" waitingTime="0.00" waitingCount="0" stopTime="0.00" timeLoss="23.78" rerouteNo="0" devices="tripinfo_134" vType="car" speedFactor="1.23" vaporized=""/>
    <tripinfo id="158" depart="237.00" departLane="-33560359#4_0" departPos="5.10" departSpeed="0.00" departDelay="0.00" arrival="357.00" arrivalLane="-27346911#3_0" arrivalPos="77.64" arrivalSpeed="11.97" duration="120.00" routeLength="1330.58" waitingTime="4.00" waitingCount="1" stopTime="0.00" timeLoss="24.87" rerouteNo="0" devices="tripinfo_158" vType="car" speedFactor="0.91" vaporized=""/>
    <tripinfo id="96" depart="144.00" departLane="-27346931_0" departPos="6.10" departSpeed="0.00" departDelay="0.00" arrival="359.00" arrivalLane="-130792421#0_0" arrivalPos="117.54" arrivalSpeed="13.37" duration="215.00" routeLength="3295.46" waitingTime="0.00" waitingCount="0" stopTime="0.00" timeLoss="22.89" rerouteNo="0" devices="tripinfo_96" vType="ambulance" speedFactor="1.00" vaporized=""/>
    <tripinfo id="122" depart="183.00" departLane="27190005#1_0" departPos="2.10" departSpeed="0.00" departDelay="0.00" arrival="367.00" arrivalLane="23163982#1_0" arrivalPos="179.38" arrivalSpeed="13.05" duration="184.00" routeLength="2483.00" waitingTime="0.00" waitingCount="0" stopTime="0.00" timeLoss="31.57" rerouteNo="0" devices="tripinfo_122" vType="bike" speedFactor="1.03" vaporized=""/>
    <tripinfo id="38" depart="57.00" departLane="-27346928#2_0" departPos="12.10" departSpeed="0.00" departDelay="0.00" arrival="370.00" arrivalLane="-26621380#1_0" arrivalPos="29.30" arrivalSpeed="11.83" duration="313.00" routeLength="2834.86" waitingTime="36.00" waitingCount="2" stopTime="0.00" timeLoss="72.71" rerouteNo="0" devices="tripinfo_38" vType="bus" speedFactor="1.10" vaporized=""/>
    <tripinfo id="162" depart="243.00" departLane="663777607#0_0" departPos="5.10" departSpeed="0.00" departDelay="0.00" arrival="370.00" arrivalLane="-27199376#2_0" arrivalPos="115.13" arrivalSpeed="13.48" duration="127.00" routeLength="1496.43" waitingTime="0.00" waitingCount="0" stopTime="0.00" timeLoss="21.96" rerouteNo="0" devices="tripinfo_162" vType="car" speedFactor="0.99" vaporized=""/>
    <tripinfo id="50" depart="75.00" departLane="-28682074#8_0" departPos="5.10" departSpeed="0.00" departDelay="0.00" arrival="379.00" arrivalLane="383931208#1_0" arrivalPos="40.71" arrivalSpeed="13.67" duration="304.00" routeLength="2658.11" waitingTime="75.00" waitingCount="3" stopTime="0.00" timeLoss="117.80" rerouteNo="0" devices="tripinfo_50" vType="car" speedFactor="0.85" vaporized=""/>
    <tripinfo id="120" depart="180.00" departLane="27347308#2_0" departPos="2.10" departSpeed="0.00" departDelay="0.00" arrival="381.00" arrivalLane="27347321#2_0" arrivalPos="39.61" arrivalSpeed="11.06" duration="201.00" routeLength="2347.09" waitingTime="6.00" waitingCount="1" stopTime="0.00" timeLoss="45.12" rerouteNo="0" devices="tripinfo_120" vType="bike" speedFactor="0.94" vaporized=""/>
    <tripinfo id="128" depart="192.00" departLane="-25459210#2_0" departPos="12.10" departSpeed="0.00" departDelay="0.00" arrival="390.00" arrivalLane="206812357#6_0" arrivalPos="39.20" arrivalSpeed="12.00" duration="198.00" routeLength="2085.22" waitingTime="0.00" waitingCount="0" stopTime="0.00" timeLoss="20.22" rerouteNo="0" devices="tripinfo_128" vType="bus" speedFactor="1.12" vaporized=""/>
    <tripinfo id="62" depart="93.00" departLane="27346933_0" departPos="5.10" departSpeed="0.00" departDelay="0.00" arrival="397.00" arrivalLane="33876662#0_0" arrivalPos="60.80" arrivalSpeed="2.64" duration="304.00" routeLength="3145.41" waitingTime="0.00" waitingCount="0" stopTime="0.00" timeLoss="80.54" rerouteNo="0" devices="tripinfo_62" vType="car" speedFactor="1.02" vaporized=""/>
    <tripinfo id="176" depart="264.00" departLane="215526710_0" departPos="5.10" departSpeed="0.00" departDelay="0.00" arrival="400.00" arrivalLane="-27434060#1_0" arrivalPos="70.97" arrivalSpeed="14.21" duration="136.00" routeLength="1151.18" waitingTime="26.00" waitingCount="1" stopTime="0.00" timeLoss="58.03" rerouteNo="0" devices="tripinfo_176" vType="car" speedFactor="1.09" vaporized=""/>
    <tripinfo id="74" depart="111.00" departLane="-218221701_0" departPos="2.10" departSpeed="0.00" departDelay="0.00" arrival="406.00" arrivalLane="-26624266#0_0" arrivalPos="19.35" arrivalSpeed="12.82" duration="295.00" routeLength="2771.18" waitingTime="43.00" waitingCount="4" stopTime="0.00" timeLoss="117.02" rerouteNo="0" devices="tripinfo_74" vType="bike" speedFactor="0.96" vaporized=""/>
    <tripinfo id="172" depart="258.00" departLane="-1035888752_0" departPos="0.20" departSpeed="0.00" departDelay="0.00" arrival="406.00" arrivalLane="30832653#3_0" arrivalPos="444.72" arrivalSpeed="15.82" duration="148.00" routeLength="1353.87" waitingTime="49.00" waitingCount="2" stopTime="0.00" timeLoss="62.77" rerouteNo="0" devices="tripinfo_172" vType="car" speedFactor="0.89" vaporized=""/>
    <tripinfo id="98" depart="147.00" departLane="-23698633#13_0" departPos="3.10" departSpeed="0.00" departDelay="0.00" arrival="407.00" arrivalLane="27189838#2_0" arrivalPos="36.91" arrivalSpeed="12.99" duration="260.00" routeLength="2821.84" waitingTime="7.00" waitingCount="1" stopTime="0.00" timeLoss="51.23" rerouteNo="0" devices="tripinfo_98" vType="auto" speedFactor="1.12" vaporized=""/>
    <tripinfo id="130" depart="195.00" departLane="189493180#4_0" departPos="5.10" departSpeed="0.00" departDelay="0.00" arrival="407.00" arrivalLane="-27189963#1_0" arrivalPos="97.85" arrivalSpeed="13.25" duration="212.00" routeLength="2603.37" waitingTime="0.00" waitingCount="0" stopTime="0.00" timeLoss="37.99" rerouteNo="0" devices="tripinfo_130" vType="car" speedFactor="1.03" vaporized=""/>
    <tripinfo id="202" depart="303.00" departLane="25459210#9_0" departPos="2.10" departSpeed="0.00" departDelay="0.00" arrival="408.00" arrivalLane="26878910#1_0" arrivalPos="51.64" arrivalSpeed="14.01" duration="105.00" routeLength="1476.98" waitingTime="0.00" waitingCount="0" stopTime="0.00" timeLoss="17.91" rerouteNo="0" devices="tripinfo_202" vType="bike" speedFactor="1.03" vaporized=""/>
    <tripinfo id="196" depart="294.00" departLane="-23163951#2_0" departPos="5.10" departSpeed="0.00" departDelay="0.00" arrival="413.00" arrivalLane="1249828807_0" arrivalPos="26.63" arrivalSpeed="14.02" duration="119.00" routeLength="1246.77" waitingTime="0.00" waitingCount="0" stopTime="0.00" timeLoss="24.07" rerouteNo="0" devices="tripinfo_196" vType="car" speedFactor="1.03" vaporized=""/>
    <tripinfo id="78" depart="117.00" departLane="-22976235#0_0" departPos="5.10" departSpeed="0.00" departDelay="0.00" arrival="414.00" arrivalLane="217753819_0" arrivalPos="64.08" arrivalSpeed="1.94" duration="297.00" routeLength="3183.63" waitingTime="29.00" waitingCount="1" stopTime="0.00" timeLoss="73.34" rerouteNo="0" devices="tripinfo_78" vType="car" speedFactor="1.01" vaporized=""/>
    <tripinfo id="106" depart="159.00" departLane="-206812356#4_0" departPos="5.10" departSpeed="0.00" departDelay="0.00" arrival="415.00" arrivalLane="588358747#3_0" arrivalPos="37.63" arrivalSpeed="13.98" duration="256.00" routeLength="3032.15" waitingTime="14.00" waitingCount="1" stopTime="0.00" timeLoss="54.57" rerouteNo="0" devices="tripinfo_106" vType="car" speedFactor="1.01" vaporized=""/>
    <tripinfo id="44" depart="66.00" departLane="995149296_0" departPos="5.10" departSpeed="0.00" departDelay="0.00" arrival="416.00" arrivalLane="1297984947_0" arrivalPos="15.42" arrivalSpeed="11.51" duration="350.00" routeLength="4136.04" waitingTime="0.00" waitingCount="0" stopTime="0.00" timeLoss="44.79" rerouteNo="0" devices="tripinfo_44" vType="car" speedFactor="1.04" vaporized=""/>
    <tripinfo id="90" depart="135.00" departLane="-23163974#1_0" departPos="5.10" departSpeed="0.00" departDelay="0.00" arrival="419.00" arrivalLane="28682074#2_0" arrivalPos="36.17" arrivalSpeed="10.83" duration="284.00" routeLength="3415.51" waitingTime="0.00" waitingCount="0" stopTime="0.00" timeLoss="49.11" rerouteNo="0" devices="tripinfo_90" vType="car" speedFactor="1.02" vaporized=""/>
    <tripinfo id="150" depart="225.00" departLane="27189873#0_0" departPos="6.10" departSpeed="0.00" departDelay="0.00" arrival="422.00" arrivalLane="27347521#3_0" arrivalPos="24.63" arrivalSpeed="11.61" duration="197.00" routeLength="2161.95" waitingTime="46.00" waitingCount="2" stopTime="0.00" timeLoss="76.74" rerouteNo="0" devices="tripinfo_150" vType="ambulance" speedFactor="0.98" vaporized=""/>