<?xml version="1.0" encoding="UTF-8"?>

<!-- generated on 2026-03-15T22:47:19.519317+05:30 by Eclipse SUMO GUI 1.26.0
<sumoConfiguration xmlns:xsi="http://www.w3.org/2001/XMLSchema-instance" xsi:noNamespaceSchemaLocation="http://sumo.dlr.de/xsd/sumoConfiguration.xsd">

    <input>
        <net-file value="config\../data/network/chennai.net.xml"/>
        <route-files value="config\../routes/vehicle_types.xml,config\../routes/dynamic_routes.rou.xml,config\../routes/bus_routes.rou.xml,config\../routes/pedestrian_routes.rou.xml"/>
        <additional-files value="config\../data/buildings/buildings.poly.xml,config\../additional/bus_stops.add.xml,config\../traffic_lights/tls.add.xml,config\../detectors/detectors.add.xml"/>
    </input>

    <output>
        <summary-output value="config\../metrics_output/summary.xml"/>
        <tripinfo-output value="config\../metrics_output/tripinfo.xml"/>
    </output>

    <time>
        <begin value="0"/>
        <end value="3600"/>
        <step-length value="1"/>
    </time>

    <processing>
        <ignore-route-errors value="true"/>
        <collision.check-junctions value="true"/>
        <time-to-teleport value="-1"/>
    </processing>

    <report>
        <verbose value="true"/>
        <no-step-log value="true"/>
    </report>

    <gui_only>
        <gui-settings-file value="config\gui_settings.xml"/>
    </gui_only>

</sumoConfiguration>
-->

<tripinfos xmlns:xsi="http://www.w3.org/2001/XMLSchema-instance" xsi:noNamespaceSchemaLocation="http://sumo.dlr.de/xsd/tripinfo_file.xsd">
    <tripinfo id="low_26" depart="52.00" departLane="206828306#0_1" departPos="5.10" departSpeed="0.00" departDelay="0.00" arrival="118.00" arrivalLane="206819361_1" arrivalPos="64.45" arrivalSpeed="12.35" duration="66.00" routeLength="595.13" waitingTime="0.00" waitingCount="0" stopTime="0.00" timeLoss="15.76" rerouteNo="0" devices="tripinfo_low_26" vType="car" speedFactor="0.93" vaporized=""/>
    <tripinfo id="low_11" depart="22.00" departLane="418882859#0_0" departPos="5.10" departSpeed="0.00" departDelay="0.00" arrival="134.00" arrivalLane="-27461039#1_1" arrivalPos="20.64" arrivalSpeed="12.64" duration="112.00" routeLength="1419.25" waitingTime="0.00" waitingCount="0" stopTime="0.00" timeLoss="18.43" rerouteNo="0" devices="tripinfo_low_11" vType="car" speedFactor="0.99" vaporized=""/>
    <tripinfo id="low_14" depart="28.00" departLane="27189862_1" departPos="2.10" departSpeed="0.00" departDelay="0.00" arrival="142.00" arrivalLane="25459918#2_1" arrivalPos="20.43" arrivalSpeed="10.25" duration="114.00" routeLength="1333.79" waitingTime="0.00" waitingCount="0" stopTime="0.00" timeLoss="24.22" rerouteNo="0" devices="tripinfo_low_14" vType="bike" speedFactor="0.94" vaporized=""/>
    <tripinfo id="low_21" depart="42.00" departLane="-1269354623_1" departPos="2.10" departSpeed="0.00" departDelay="0.00" arrival="158.00" arrivalLane="-27189817#0_1" arrivalPos="29.47" arrivalSpeed="10.09" duration="116.00" routeLength="1386.46" waitingTime="0.00" waitingCount="0" stopTime="0.00" timeLoss="25.55" rerouteNo="0" devices="tripinfo_low_21" vType="bike" speedFactor="0.83" vaporized=""/>
    <tripinfo id="low_34" depart="68.00" departLane="-217753812_1" departPos="5.10" departSpeed="0.00" departDelay="0.00" arrival="160.00" arrivalLane="33876644#5_0" arrivalPos="23.19" arrivalSpeed="9.22" duration="92.00" routeLength="1138.32" waitingTime="0.00" waitingCount="0" stopTime="0.00" timeLoss="18.53" rerouteNo="0" devices="tripinfo_low_34" vType="car" speedFactor="1.18" vaporized=""/>
    <tripinfo id="low_1" depart="2.00" departLane="-25466266#2_0" departPos="5.10" departSpeed="0.00" departDelay="0.00" arrival="162.00" arrivalLane="-26748566#9_0" arrivalPos="52.87" arrivalSpeed="15.64" duration="160.00" routeLength="2070.24" waitingTime="0.00" waitingCount="0" stopTime="0.00" timeLoss="25.65" rerouteNo="0" devices="tripinfo_low_1" vType="car" speedFactor="0.94" vaporized=""/>
    <tripinfo id="low_5" depart="10.00" departLane="-217754784#3_1" departPos="2.10" departSpeed="0.00" departDelay="0.00" arrival="171.00" arrivalLane="1269290407_1" arrivalPos="23.56" arrivalSpeed="12.85" duration="161.00" routeLength="1744.92" waitingTime="31.00" waitingCount="1" stopTime="0.00" timeLoss="54.16" rerouteNo="0" devices="tripinfo_low_5" vType="bike" speedFactor="0.94" vaporized=""/>
    <tripinfo id="low_13" depart="26.00" departLane="27201835#0_1" departPos="5.10" departSpeed="0.00" departDelay="0.00" arrival="173.00" arrivalLane="206812357#7_1" arrivalPos="67.55" arrivalSpeed="11.88" duration="147.00" routeLength="1724.41" waitingTime="0.00" waitingCount="0" stopTime="0.00" timeLoss="18.87" rerouteNo="0" devices="tripinfo_low_13" vType="car" speedFactor="0.88" vaporized=""/>
    <tripinfo id="low_0" depart="0.00" departLane="206665267#0_1" departPos="2.10" departSpeed="0.00" departDelay="0.00" arrival="176.00" arrivalLane="-1249828807_1" arrivalPos="26.68" arrivalSpeed="14.09" duration="176.00" routeLength="2233.91" waitingTime="0.00" waitingCount="0" stopTime="0.00" timeLoss="39.11" rerouteNo="0" devices="tripinfo_low_0" vType="bike" speedFactor="1.06" vaporized=""/>
    <tripinfo id="low_60" depart="120.00" departLane="-1188248472_1" departPos="3.10" departSpeed="0.00" departDelay="0.00" arrival="178.00" arrivalLane="33560267_1" arrivalPos="163.89" arrivalSpeed="13.44" duration="58.00" routeLength="685.27" waitingTime="0.00" waitingCount="0" stopTime="0.00" timeLoss="6.81" rerouteNo="0" devices="tripinfo_low_60" vType="auto" speedFactor="0.99" vaporized=""/>
    <tripinfo id="low_22" depart="44.00" departLane="-130792421#2_1" departPos="5.10" departSpeed="0.00" departDelay="0.00" arrival="181.00" arrivalLane="-27199376#2_1" arrivalPos="115.12" arrivalSpeed="10.91" duration="137.00" routeLength="1485.34" waitingTime="0.00" waitingCount="0" stopTime="0.00" timeLoss="27.42" rerouteNo="0" devices="tripinfo_low_22" vType="car" speedFactor="0.87" vaporized=""/>
    <tripinfo id="low_87" depart="174.00" departLane="995109115#0_1" departPos="5.10" departSpeed="0.00" departDelay="0.00" arrival="186.00" arrivalLane="-206828304#0_1" arrivalPos="21.46" arrivalSpeed="11.93" duration="12.00" routeLength="60.76" waitingTime="0.00" waitingCount="0" stopTime="0.00" timeLoss="5.75" rerouteNo="0" devices="tripinfo_low_87" vType="car" speedFactor="1.02" vaporized=""/>
    <tripinfo id="low_72" depart="144.00" departLane="995149294_0" departPos="11.11" departSpeed="0.00" departDelay="0.00" arrival="202.00" arrivalLane="217747538#2_1" arrivalPos="41.63" arrivalSpeed="11.79" duration="58.00" routeLength="424.23" waitingTime="0.00" waitingCount="0" stopTime="0.00" timeLoss="19.11" rerouteNo="0" devices="tripinfo_low_72" vType="bus" speedFactor="0.98" vaporized=""/>
    <tripinfo id="low_6" depart="12.00" departLane="-1189608743_1" departPos="12.10" departSpeed="0.00" departDelay="0.00" arrival="203.00" arrivalLane="-25466266#1_0" arrivalPos="20.71" arrivalSpeed="11.97" duration="191.00" routeLength="1789.14" waitingTime="4.00" waitingCount="1" stopTime="0.00" timeLoss="37.36" rerouteNo="0" devices="tripinfo_low_6" vType="bus" speedFactor="0.86" vaporized=""/>
    <tripinfo id="low_17" depart="34.00" departLane="27189978#3_1" departPos="5.10" departSpeed="0.00" departDelay="0.00" arrival="206.00" arrivalLane="209514726#2_0" arrivalPos="111.41" arrivalSpeed="13.57" duration="172.00" routeLength="2172.72" waitingTime="0.00" waitingCount="0" stopTime="0.00" timeLoss="32.59" rerouteNo="0" devices="tripinfo_low_17" vType="car" speedFactor="1.02" vaporized=""/>
    <tripinfo id="low_27" depart="54.00" departLane="-214202953_0" departPos="5.10" departSpeed="0.00" departDelay="0.00" arrival="206.00" arrivalLane="25459372#3_1" arrivalPos="137.73" arrivalSpeed="14.83" duration="152.00" routeLength="1738.66" waitingTime="0.00" waitingCount="0" stopTime="0.00" timeLoss="30.04" rerouteNo="0" devices="tripinfo_low_27" vType="car" speedFactor="1.18" vaporized=""/>
    <tripinfo id="low_50" depart="100.00" departLane="-240514423#6_1" departPos="2.19" departSpeed="0.00" departDelay="0.00" arrival="207.00" arrivalLane="217745302#2_0" arrivalPos="3.69" arrivalSpeed="2.97" duration="107.00" routeLength="1222.62" waitingTime="0.00" waitingCount="0" stopTime="0.00" timeLoss="17.62" rerouteNo="0" devices="tripinfo_low_50" vType="car" speedFactor="1.10" vaporized=""/>
    <tripinfo id="low_25" depart="50.00" departLane="-240514423#7_1" departPos="0.20" departSpeed="0.00" departDelay="0.00" arrival="215.00" arrivalLane="33876068#2_0" arrivalPos="63.43" arrivalSpeed="1.90" duration="165.00" routeLength="1852.50" waitingTime="0.00" waitingCount="0" stopTime="0.00" timeLoss="27.64" rerouteNo="0" devices="tripinfo_low_25" vType="car" speedFactor="1.13" vaporized=""/>
    <tripinfo id="low_4" depart="8.00" departLane="-27434055#0_1" departPos="2.10" departSpeed="0.00" departDelay="0.00" arrival="217.00" arrivalLane="-1267322167_0" arrivalPos="18.11" arrivalSpeed="14.38" duration="209.00" routeLength="2397.75" waitingTime="9.00" waitingCount="1" stopTime="0.00" timeLoss="55.72" rerouteNo="0" devices="tripinfo_low_4" vType="bike" speedFactor="0.89" vaporized=""/>
    <tripinfo id="low_56" depart="112.00" departLane="1371612034_1" departPos="5.10" departSpeed="0.00" departDelay="0.00" arrival="217.00" arrivalLane="-218221695_0" arrivalPos="35.10" arrivalSpeed="2.36" duration="105.00" routeLength="992.52" waitingTime="0.00" waitingCount="0" stopTime="0.00" timeLoss="22.09" rerouteNo="0" devices="tripinfo_low_56" vType="car" speedFactor="0.97" vaporized=""/>
    <tripinfo id="low_58" depart="117.00" departLane="26621177#0_0" departPos="5.10" departSpeed="0.00" departDelay="1.00" arrival="218.00" arrivalLane="1303180229#3_0" arrivalPos="35.63" arrivalSpeed="7.61" duration="101.00" routeLength="1063.32" waitingTime="0.00" waitingCount="0" stopTime="0.00" timeLoss="30.36" rerouteNo="0" devices="tripinfo_low_58" vType="car" speedFactor="1.12" vaporized=""/>
    <tripinfo id="low_8" depart="16.00" departLane="27189869#4_1" departPos="5.10" departSpeed="0.00" departDelay="0.00" arrival="223.00" arrivalLane="-1131526942#16_1" arrivalPos="7.30" arrivalSpeed="7.48" duration="207.00" routeLength="2305.58" waitingTime="32.00" waitingCount="1" stopTime="0.00" timeLoss="59.18" rerouteNo="0" devices="tripinfo_low_8" vType="car" speedFactor="1.03" vaporized=""/>
    <tripinfo id="low_40" depart="80.00" departLane="-27346939#1_0" departPos="2.10" departSpeed="0.00" departDelay="0.00" arrival="228.00" arrivalLane="-26621212#4_0" arrivalPos="21.92" arrivalSpeed="17.23" duration="148.00" routeLength="1536.14" waitingTime="0.00" waitingCount="0" stopTime="0.00" timeLoss="32.45" rerouteNo="0" devices="tripinfo_low_40" vType="bike" speedFactor="1.04" vaporized=""/>
    <tripinfo id="low_10" depart="20.00" departLane="-27189919#2_1" departPos="5.10" departSpeed="0.00" departDelay="0.00" arrival="230.00" arrivalLane="-218226967_1" arrivalPos="89.10" arrivalSpeed="14.76" duration="210.00" routeLength="2159.27" waitingTime="3.00" waitingCount="1" stopTime="0.00" timeLoss="67.99" rerouteNo="0" devices="tripinfo_low_10" vType="car" speedFactor="1.12" vaporized=""/>
    <tripinfo id="low_59" depart="118.00" departLane="-101176398#4_0" departPos="5.10" departSpeed="0.00" departDelay="0.00" arrival="233.00" arrivalLane="-27432453#4_0" arrivalPos="19.31" arrivalSpeed="14.82" duration="115.00" routeLength="987.16" waitingTime="32.00" waitingCount="1" stopTime="0.00" timeLoss="50.49" rerouteNo="0" devices="tripinfo_low_59" vType="car" speedFactor="1.02" vaporized=""/>
    <tripinfo id="low_46" depart="92.00" departLane="995149296_0" departPos="5.10" departSpeed="0.00" departDelay="0.00" arrival="245.00" arrivalLane="1298017347_1" arrivalPos="113.89" arrivalSpeed="11.74" duration="153.00" routeLength="1692.99" waitingTime="0.00" waitingCount="0" stopTime="0.00" timeLoss="25.17" rerouteNo="0" devices="tripinfo_low_46" vType="car" speedFactor="0.85" vaporized=""/>
    <tripinfo id="low_69" depart="138.00" departLane="-27434296_1" departPos="5.10" departSpeed="0.00" departDelay="0.00" arrival="250.00" arrivalLane="-26524683#0_1" arrivalPos="117.24" arrivalSpeed="12.25" duration="112.00" routeLength="1188.84" waitingTime="0.00" waitingCount="0" stopTime="0.00" timeLoss="22.06" rerouteNo="0" devices="tripinfo_low_69" vType="car" speedFactor="0.94" vaporized=""/>
    <tripinfo id="low_15" depart="30.00" departLane="1156857454_0" departPos="5.10" departSpeed="0.00" departDelay="0.00" arrival="251.00" arrivalLane="692208071_0" arrivalPos="32.91" arrivalSpeed="12.27" duration="221.00" routeLength="2848.86" waitingTime="7.00" waitingCount="1" stopTime="0.00" timeLoss="41.40" rerouteNo="0" devices="tripinfo_low_15" vType="car" speedFactor="0.94" vaporized=""/>
    <tripinfo id="low_98" depart="196.00" departLane="-692050974#1_1" departPos="3.10" departSpeed="0.00" departDelay="0.00" arrival="252.00" arrivalLane="-26525083#4_1" arrivalPos="9.67" arrivalSpeed="12.79" duration="56.00" routeLength="524.23" waitingTime="0.00" waitingCount="0" stopTime="0.00" timeLoss="13.81" rerouteNo="0" devices="tripinfo_low_98" vType="auto" speedFactor="0.96" vaporized=""/>
    <tripinfo id="low_43" depart="86.00" departLane="-1322515344#1_1" departPos="5.10" departSpeed="0.00" departDelay="0.00" arrival="254.00" arrivalLane="214356683#5_1" arrivalPos="8.81" arrivalSpeed="13.45" duration="168.00" routeLength="1994.33" waitingTime="0.00" waitingCount="0" stopTime="0.00" timeLoss="27.00" rerouteNo="0" devices="tripinfo_low_43" vType="car" speedFactor="1.00" vaporized=""/>
    <tripinfo id="low_103" depart="206.00" departLane="418882859#1_0" departPos="5.10" departSpeed="0.00" departDelay="0.00" arrival="255.00" arrivalLane="995149312_1" arrivalPos="33.28" arrivalSpeed="12.43" duration="49.00" routeLength="507.51" waitingTime="0.00" waitingCount="0" stopTime="0.00" timeLoss="12.18" rerouteNo="0" devices="tripinfo_low_103" vType="car" speedFactor="1.01" vaporized=""/>
    <tripinfo id="low_106" depart="212.00" departLane="68536156#2_1" departPos="5.10" departSpeed="0.00" departDelay="0.00" arrival="255.00" arrivalLane="184913340#2_1" arrivalPos="40.68" arrivalSpeed="12.72" duration="43.00" routeLength="374.44" waitingTime="0.00" waitingCount="0" stopTime="0.00" timeLoss="11.86" rerouteNo="0" devices="tripinfo_low_106" vType="car" speedFactor="0.96" vaporized=""/>
    <tripinfo id="low_12" depart="24.00" departLane="-1296567702#1_1" departPos="5.10" departSpeed="0.00" departDelay="0.00" arrival="257.00" arrivalLane="-206819373#0_1" arrivalPos="16.84" arrivalSpeed="12.73" duration="233.00" routeLength="2603.54" waitingTime="25.00" waitingCount="1" stopTime="0.00" timeLoss="59.51" rerouteNo="0" devices="tripinfo_low_12" vType="car" speedFactor="0.93" vaporized=""/>
    <tripinfo id="low_84" depart="168.00" departLane="-1297984946#1_1" departPos="5.10" departSpeed="0.00" departDelay="0.00" arrival="263.00" arrivalLane="1131526942#6_1" arrivalPos="66.76" arrivalSpeed="7.72" duration="95.00" routeLength="741.11" waitingTime="0.00" waitingCount="0" stopTime="0.00" timeLoss="13.31" rerouteNo="0" devices="tripinfo_low_84" vType="car" speedFactor="1.04" vaporized=""/>
    <tripinfo id="low_55" depart="110.00" departLane="-26621212#4_0" departPos="2.10" departSpeed="0.00" departDelay="0.00" arrival="273.00" arrivalLane="217745300_0" arrivalPos="130.73" arrivalSpeed="1.38" duration="163.00" routeLength="940.24" waitingTime="0.00" waitingCount="0" stopTime="0.00" timeLoss="43.57" rerouteNo="0" devices="tripinfo_low_55" vType="bike" speedFactor="1.02" vaporized=""/>
    <tripinfo id="low_16" depart="32.00" departLane="-27202513#3_1" departPos="5.10" departSpeed="0.00" departDelay="0.00" arrival="274.00" arrivalLane="1361642210_1" arrivalPos="59.13" arrivalSpeed="15.40" duration="242.00" routeLength="3180.48" waitingTime="0.00" waitingCount="0" stopTime="0.00" timeLoss="38.16" rerouteNo="0" devices="tripinfo_low_16" vType="car" speedFactor="1.16" vaporized=""/>
    <tripinfo id="low_28" depart="56.00" departLane="-206819366_1" departPos="2.10" departSpeed="0.00" departDelay="0.00" arrival="277.00" arrivalLane="-412956333#0_1" arrivalPos="33.50" arrivalSpeed="14.08" duration="221.00" routeLength="3065.33" waitingTime="1.00" waitingCount="1" stopTime="0.00" timeLoss="38.98" rerouteNo="0" devices="tripinfo_low_28" vType="bike" speedFactor="1.15" vaporized=""/>
    <tripinfo id="low_61" depart="122.00" departLane="27346939#0_0" departPos="2.10" departSpeed="0.00" departDelay="0.00" arrival="277.00" arrivalLane="27198627#1_0" arrivalPos="38.43" arrivalSpeed="14.04" duration="155.00" routeLength="1657.43" waitingTime="13.00" waitingCount="1" stopTime="0.00" timeLoss="42.65" rerouteNo="0" devices="tripinfo_low_61" vType="bike" speedFactor="0.94" vaporized=""/>
    <tripinfo id="low_47" depart="94.00" departLane="692140459#2_1" departPos="5.10" departSpeed="0.00" departDelay="0.00" arrival="278.00" arrivalLane="27346909#0_1" arrivalPos="47.12" arrivalSpeed="11.14" duration="184.00" routeLength="1984.61" waitingTime="13.00" waitingCount="1" stopTime="0.00" timeLoss="44.60" rerouteNo="0" devices="tripinfo_low_47" vType="car" speedFactor="0.85" vaporized=""/>
    <tripinfo id="low_108" depart="216.00" departLane="-1259144614_1" departPos="5.10" departSpeed="0.00" departDelay="0.00" arrival="278.00" arrivalLane="184913361#1_1" arrivalPos="150.62" arrivalSpeed="11.61" duration="62.00" routeLength="573.03" waitingTime="0.00" waitingCount="0" stopTime="0.00" timeLoss="10.51" rerouteNo="0" devices="tripinfo_low_108" vType="car" speedFactor="0.87" vaporized=""/>
    <tripinfo id="low_82" depart="164.00" departLane="-33876670#1_0" departPos="5.10" departSpeed="0.00" departDelay="0.00" arrival="280.00" arrivalLane="27189849_1" arrivalPos="86.74" arrivalSpeed="12.76" duration="116.00" routeLength="1426.08" waitingTime="1.00" waitingCount="1" stopTime="0.00" timeLoss="22.78" rerouteNo="0" devices="tripinfo_low_82" vType="car" speedFactor="0.98" vaporized=""/>
    <tripinfo id="low_57" depart="114.00" departLane="25466396#1_0" departPos="2.10" departSpeed="0.00" departDelay="0.00" arrival="281.00" arrivalLane="1313198080_0" arrivalPos="553.65" arrivalSpeed="16.60" duration="167.00" routeLength="2530.08" waitingTime="0.00" waitingCount="0" stopTime="0.00" timeLoss="23.28" rerouteNo="0" devices="tripinfo_low_57" vType="bike" speedFactor="1.08" vaporized=""/>
    <tripinfo id="low_18" depart="36.00" departLane="27346876#1_1" departPos="2.10" departSpeed="0.00" departDelay="0.00" arrival="282.00" arrivalLane="184913337#2_1" arrivalPos="72.87" arrivalSpeed="13.77" duration="246.00" routeLength="2576.15" waitingTime="47.00" waitingCount="2" stopTime="0.00" timeLoss="90.57" rerouteNo="0" devices="tripinfo_low_18" vType="bike" speedFactor="1.01" vaporized=""/>
    <tripinfo id="low_99" depart="198.00" departLane="-27347301#2_1" departPos="12.10" departSpeed="0.00" departDelay="0.00" arrival="286.00" arrivalLane="-130792421#2_1" arrivalPos="84.63" arrivalSpeed="11.94" duration="88.00" routeLength="775.47" waitingTime="0.00" waitingCount="0" stopTime="0.00" timeLoss="20.20" rerouteNo="0" devices="tripinfo_low_99" vType="bus" speedFactor="0.97" vaporized=""/>
    <tripinfo id="low_48" depart="96.00" departLane="-1131526947_1" departPos="2.10" departSpeed="0.00" departDelay="0.00" arrival="287.00" arrivalLane="23698648#2_1" arrivalPos="64.37" arrivalSpeed="16.11" duration="191.00" routeLength="2007.14" waitingTime="39.00" waitingCount="1" stopTime="0.00" timeLoss="71.96" rerouteNo="0" devices="tripinfo_low_48" vType="bike" speedFactor="1.17" vaporized=""/>
    <tripinfo id="low_111" depart="222.00" departLane="-1270468039_1" departPos="5.10" departSpeed="0.00" departDelay="0.00" arrival="287.00" arrivalLane="-23698636#4_0" arrivalPos="60.31" arrivalSpeed="15.31" duration="65.00" routeLength="698.05" waitingTime="0.00" waitingCount="0" stopTime="0.00" timeLoss="17.00" rerouteNo="0" devices="tripinfo_low_111" vType="car" speedFactor="1.10" vaporized=""/>
    <tripinfo id="low_7" depart="14.00" departLane="-217798333_1" departPos="5.10" departSpeed="0.00" departDelay="0.00" arrival="289.00" arrivalLane="186797302#3_1" arrivalPos="0.20" arrivalSpeed="14.80" duration="275.00" routeLength="3643.40" waitingTime="8.00" waitingCount="1" stopTime="0.00" timeLoss="44.04" rerouteNo="0" devices="tripinfo_low_7" vType="car" speedFactor="1.09" vaporized=""/>
    <tripinfo id="low_81" depart="162.00" departLane="33560359#0_1" departPos="5.10" departSpeed="0.00" departDelay="0.00" arrival="292.00" arrivalLane="184913301#1_1" arrivalPos="52.76" arrivalSpeed="15.30" duration="130.00" routeLength="1689.66" waitingTime="0.00" waitingCount="0" stopTime="0.00" timeLoss="20.21" rerouteNo="0" devices="tripinfo_low_81" vType="car" speedFactor="1.15" vaporized=""/>
    <tripinfo id="low_33" depart="66.00" departLane="-27189827_1" departPos="3.10" departSpeed="0.00" departDelay="0.00" arrival="295.00" arrivalLane="-27189993#0_1" arrivalPos="66.59" arrivalSpeed="13.36" duration="229.00" routeLength="2472.28" waitingTime="11.00" waitingCount="1" stopTime="0.00" timeLoss="45.69" rerouteNo="0" devices="tripinfo_low_33" vType="auto" speedFactor="0.97" vaporized=""/>
    <tripinfo id="low_52" depart="104.00" departLane="-33560262_1" departPos="5.10" departSpeed="0.00" departDelay="0.00" arrival="295.00" arrivalLane="418880841#1_1" arrivalPos="142.68" arrivalSpeed="15.63" duration="191.00" routeLength="2030.80" waitingTime="35.00" waitingCount="1" stopTime="0.00" timeLoss="59.24" rerouteNo="0" devices="tripinfo_low_52" vType="car" speedFactor="1.00" vaporized=""/>
    <tripinfo id="low_24" depart="48.00" departLane="-27201478_1" departPos="3.10" departSpeed="0.00" departDelay="0.00" arrival="298.00" arrivalLane="-26524352#0_0" arrivalPos="54.51" arrivalSpeed="12.75" duration="250.00" routeLength="2738.81" waitingTime="18.00" waitingCount="1" stopTime="0.00" timeLoss="50.33" rerouteNo="0" devices="tripinfo_low_24" vType="auto" speedFactor="0.95" vaporized=""/>
    <tripinfo id="low_80" depart="160.00" departLane="-217753820_0" departPos="5.10" departSpeed="0.00" departDelay="0.00" arrival="298.00" arrivalLane="-217747538#1_1" arrivalPos="24.93" arrivalSpeed="10.33" duration="138.00" routeLength="954.37" waitingTime="1.00" waitingCount="1" stopTime="0.00" timeLoss="35.88" rerouteNo="0" devices="tripinfo_low_80" vType="car" speedFactor="0.97" vaporized=""/>
    <tripinfo id="low_31" depart="62.00" departLane="27198759#1_1" departPos="2.10" departSpeed="0.00" departDelay="0.00" arrival="299.00" arrivalLane="27189815#1_1" arrivalPos="15.72" arrivalSpeed="12.07" duration="237.00" routeLength="2226.52" waitingTime="59.00" waitingCount="2" stopTime="0.00" timeLoss="104.46" rerouteNo="0" devices="tripinfo_low_31" vType="bike" speedFactor="0.99" vaporized=""/>
    <tripinfo id="low_96" depart="192.00" departLane="68536156#5_1" departPos="6.10" departSpeed="0.00" departDelay="0.00" arrival="304.00" arrivalLane="33559923#0_0" arrivalPos="51.74" arrivalSpeed="2.36" duration="112.00" routeLength="975.01" waitingTime="0.00" waitingCount="0" stopTime="0.00" timeLoss="17.39" rerouteNo="0" devices="tripinfo_low_96" vType="ambulance" speedFactor="1.05" vaporized=""/>
    <tripinfo id="low_42" depart="84.00" departLane="-1280152274_1" departPos="5.10" departSpeed="0.00" departDelay="0.00" arrival="312.00" arrivalLane="-1281948732_1" arrivalPos="36.91" arrivalSpeed="13.71" duration="228.00" routeLength="1990.71" waitingTime="59.00" waitingCount="2" stopTime="0.00" timeLoss="97.56" rerouteNo="0" devices="tripinfo_low_42" vType="car" speedFactor="1.09" vaporized=""/>
    <tripinfo id="low_65" depart="130.00" departLane="-1268593131_1" departPos="2.10" departSpeed="0.00" departDelay="0.00" arrival="315.00" arrivalLane="26624253#0_1" arrivalPos="15.26" arrivalSpeed="14.30" duration="185.00" routeLength="2322.55" waitingTime="17.00" waitingCount="1" stopTime="0.00" timeLoss="51.36" rerouteNo="0" devices="tripinfo_low_65" vType="bike" speedFactor="1.04" vaporized=""/>
    <tripinfo id="low_67" depart="134.00" departLane="-349012388#4_1" departPos="5.10" departSpeed="0.00" departDelay="0.00" arrival="318.00" arrivalLane="1358566878_0" arrivalPos="0.49" arrivalSpeed="8.40" duration="184.00" routeLength="1470.63" waitingTime="58.00" waitingCount="2" stopTime="0.00" timeLoss="85.79" rerouteNo="0" devices="tripinfo_low_67" vType="car" speedFactor="1.02" vaporized=""/>
    <tripinfo id="low_30" depart="60.00" departLane="1249393975#0_1" departPos="2.10" departSpeed="0.00" departDelay="0.00" arrival="320.00" arrivalLane="218221713#1_1" arrivalPos="21.39" arrivalSpeed="14.58" duration="260.00" routeLength="3529.93" waitingTime="18.00" waitingCount="1" stopTime="0.00" timeLoss="58.46" rerouteNo="0" devices="tripinfo_low_30" vType="bike" speedFactor="1.17" vaporized=""/>
    <tripinfo id="low_29" depart="58.00" departLane="995114828_1" departPos="2.10" departSpeed="0.00" departDelay="0.00" arrival="328.00" arrivalLane="217745301#1_1" arrivalPos="64.84" arrivalSpeed="13.80" duration="270.00" routeLength="3252.53" waitingTime="38.00" waitingCount="3" stopTime="0.00" timeLoss="82.84" rerouteNo="0" devices="tripinfo_low_29" vType="bike" speedFactor="1.01" vaporized=""/>
    <tripinfo id="low_89" depart="178.00" departLane="27346876#1_1" departPos="5.10" departSpeed="0.00" departDelay="0.00" arrival="328.00" arrivalLane="-27189875_1" arrivalPos="80.71" arrivalSpeed="11.06" duration="150.00" routeLength="1475.44" waitingTime="0.00" waitingCount="0" stopTime="0.00" timeLoss="29.17" rerouteNo="0" devices="tripinfo_low_89" vType="car" speedFactor="0.83" vaporized=""/>
    <tripinfo id="low_123" depart="246.00" departLane="995152284_1" departPos="5.10" departSpeed="0.00" departDelay="0.00" arrival="329.00" arrivalLane="995150153_1" arrivalPos="30.89" arrivalSpeed="12.54" duration="83.00" routeLength="899.31" waitingTime="3.00" waitingCount="1" stopTime="0.00" timeLoss="21.25" rerouteNo="0" devices="tripinfo_low_123" vType="car" speedFactor="1.03" vaporized=""/>
    <tripinfo id="low_64" depart="128.00" departLane="-1270578479_1" departPos="2.10" departSpeed="0.00" departDelay="0.00" arrival="331.00" arrivalLane="1259144614_1" arrivalPos="45.20" arrivalSpeed="12.34" duration="203.00" routeLength="2493.92" waitingTime="0.00" waitingCount="0" stopTime="0.00" timeLoss="40.04" rerouteNo="0" devices="tripinfo_low_64" vType="bike" speedFactor="0.91" vaporized=""/>
    <tripinfo id="low_19" depart="38.00" departLane="217798331#0_1" departPos="5.10" departSpeed="0.00" departDelay="0.00" arrival="332.00" arrivalLane="-1281940342_0" arrivalPos="34.63" arrivalSpeed="2.06" duration="294.00" routeLength="2708.00" waitingTime="53.00" waitingCount="2" stopTime="0.00" timeLoss="93.97" rerouteNo="0" devices="tripinfo_low_19" vType="car" speedFactor="0.97" vaporized=""/>
    <tripinfo id="low_63" depart="126.00" departLane="27346937#1_1" departPos="2.10" departSpeed="0.00" departDelay="0.00" arrival="337.00" arrivalLane="33876668#2_0" arrivalPos="29.10" arrivalSpeed="2.19" duration="211.00" routeLength="1864.87" waitingTime="0.00" waitingCount="0" stopTime="0.00" timeLoss="46.50" rerouteNo="0" devices="tripinfo_low_63" vType="bike" speedFactor="0.91" vaporized=""/>
    <tripinfo id="low_153" depart="306.00" departLane="27346882#0_1" departPos="5.10" departSpeed="0.00" departDelay="0.00" arrival="337.00" arrivalLane="726099241#4_0" arrivalPos="64.58" arrivalSpeed="15.81" duration="31.00" routeLength="270.63" waitingTime="0.00" waitingCount="0" stopTime="0.00" timeLoss="12.11" rerouteNo="0" devices="tripinfo_low_153" vType="car" speedFactor="1.18" vaporized=""/>
    <tripinfo id="low_129" depart="258.00" departLane="209535249#1_0" departPos="2.10" departSpeed="0.00" departDelay="0.00" arrival="341.00" arrivalLane="-1131526942#9_1" arrivalPos="17.66" arrivalSpeed="6.84" duration="83.00" routeLength="808.26" waitingTime="0.00" waitingCount="0" stopTime="0.00" timeLoss="17.14" rerouteNo="0" devices="tripinfo_low_129" vType="bike" speedFactor="0.96" vaporized=""/>
    <tripinfo id="low_3" depart="6.00" departLane="27432453#2_0" departPos="5.10" departSpeed="0.00" departDelay="0.00" arrival="346.00" arrivalLane="-189500792_1" arrivalPos="313.63" arrivalSpeed="13.56" duration="340.00" routeLength="4040.87" waitingTime="29.00" waitingCount="2" stopTime="0.00" timeLoss="76.49" rerouteNo="0" devices="tripinfo_low_3" vType="car" speedFactor="1.05" vaporized=""/>
    <tripinfo id="low_51" depart="102.00" departLane="-1324641901_1" departPos="5.10" departSpeed="0.00" departDelay="0.00" arrival="346.00" arrivalLane="1137982398#0_0" arrivalPos="89.55" arrivalSpeed="15.69" duration="244.00" routeLength="2429.14" waitingTime="55.00" waitingCount="2" stopTime="0.00" timeLoss="86.67" rerouteNo="0" devices="tripinfo_low_51" vType="car" speedFactor="1.00" vaporized=""/>
    <tripinfo id="low_94" depart="188.00" departLane="1229033621#1_0" departPos="5.10" departSpeed="0.00" departDelay="0.00" arrival="347.00" arrivalLane="-1296568209_1" arrivalPos="24.13" arrivalSpeed="10.49" duration="159.00" routeLength="1744.91" waitingTime="2.00" waitingCount="1" stopTime="0.00" timeLoss="34.80" rerouteNo="0" devices="tripinfo_low_94" vType="car" speedFactor="0.91" vaporized=""/>
    <tripinfo id="low_102" depart="204.00" departLane="-33560275_1" departPos="2.10" departSpeed="0.00" departDelay="0.00" arrival="347.00" arrivalLane="1093761900_1" arrivalPos="53.65" arrivalSpeed="14.35" duration="143.00" routeLength="1711.37" waitingTime="21.00" waitingCount="1" stopTime="0.00" timeLoss="42.53" rerouteNo="0" devices="tripinfo_low_102" vType="bike" speedFactor="1.07" vaporized=""/>